 DBCSR| CPU Multiplication driver                                           XSMM
 DBCSR| Multrec recursion limit                                              512
 DBCSR| Multiplication stack size                                           1000
 DBCSR| Maximum elements for images                                    UNLIMITED
 DBCSR| Multiplicative factor virtual images                                   1
 DBCSR| Use multiplication densification                                       T
 DBCSR| Multiplication size stacks                                             3


  **** **** ******  **  PROGRAM STARTED AT               2022-12-27 11:52:42.871
 ***** ** ***  *** **   PROGRAM STARTED ON                        OROZCO66.local
 **    ****   ******    PROGRAM STARTED BY                              gbayarri
 ***** **    ** ** **   PROGRAM PROCESS ID                                 53636
  **** **  *******  **  PROGRAM STARTED IN /Users/gbayarri/projects/BioBB/bce636
                                           12-4b59-4152-a98d-65c230a87472

 CP2K| version string:                                          CP2K version 7.1
 CP2K| source code revision number:                                  git:e635599
 CP2K| cp2kflags: omp fftw3 xsmm no_statm_access accelerate                     
 CP2K| is freely available from                            https://www.cp2k.org/
 CP2K| Program compiled at                          Wed Apr 14 20:09:11 UTC 2021
 CP2K| Program compiled on                               Mac-1618428915900.local
 CP2K| Program compiled for                                  Darwin-x86-64-conda
 CP2K| Data directory path    /Users/gbayarri/opt/anaconda3/envs/biobb_380/cp2k_
 CP2K| Input file name                                           cp2k_energy.inp

 GLOBAL| Force Environment number                                              1
 GLOBAL| Basis set file name                                        BASIS_MOLOPT
 GLOBAL| Potential file name                                      GTH_POTENTIALS
 GLOBAL| MM Potential file name                                     MM_POTENTIAL
 GLOBAL| Coordinate file name                                      __STD_INPUT__
 GLOBAL| Method name                                                        CP2K
 GLOBAL| Project name                       BioBB_CP2K_Energy_Forces_Calculation
 GLOBAL| Preferred FFT library                                             FFTW3
 GLOBAL| Preferred diagonalization lib.                                       SL
 GLOBAL| Run type                                                   ENERGY_FORCE
 GLOBAL| All-to-all communication in single precision                          F
 GLOBAL| FFTs using library dependent lengths                                  F
 GLOBAL| Global print level                                                  LOW
 GLOBAL| MPI I/O enabled                                                       T
 GLOBAL| Total number of message passing processes                             1
 GLOBAL| Number of threads for this process                                    8
 GLOBAL| This output is from process                                           0
 GLOBAL| CPU model name                                                  UNKNOWN
 GLOBAL| CPUID                                                              1000
 GLOBAL| Compiled for CPUID                                                    0

 MEMORY| system memory details [Kb]
 MEMORY|                        rank 0           min           max       average
 MEMORY| MemTotal                    0             0             0             0
 MEMORY| MemFree                     0             0             0             0
 MEMORY| Buffers                     0             0             0             0
 MEMORY| Cached                      0             0             0             0
 MEMORY| Slab                        0             0             0             0
 MEMORY| SReclaimable                0             0             0             0
 MEMORY| MemLikelyFree               0             0             0             0


 GENERATE|  Preliminary Number of Bonds generated:                             0
 GENERATE|  Achieved consistency in connectivity generation.

 *******************************************************************************
 *******************************************************************************
 **                                                                           **
 **     #####                         ##              ##                      **
 **    ##   ##            ##          ##              ##                      **
 **   ##     ##                       ##            ######                    **
 **   ##     ##  ##   ##  ##   #####  ##  ##   ####   ##    #####    #####    **
 **   ##     ##  ##   ##  ##  ##      ## ##   ##      ##   ##   ##  ##   ##   **
 **   ##  ## ##  ##   ##  ##  ##      ####     ###    ##   ######   ######    **
 **    ##  ###   ##   ##  ##  ##      ## ##      ##   ##   ##       ##        **
 **     #######   #####   ##   #####  ##  ##  ####    ##    #####   ##        **
 **           ##                                                    ##        **
 **                                                                           **
 **                                                ... make the atoms dance   **
 **                                                                           **
 **            Copyright (C) by CP2K developers group (2000 - 2019)           **
 **                                                                           **
 *******************************************************************************


 TOTAL NUMBERS AND MAXIMUM NUMBERS

  Total number of            - Atomic kinds:                                   2
                             - Atoms:                                         96
                             - Shell sets:                                    96
                             - Shells:                                       352
                             - Primitive Cartesian functions:                480
                             - Cartesian basis functions:                    768
                             - Spherical basis functions:                    736

  Maximum angular momentum of- Orbital basis functions:                        2
                             - Local part of the GTH pseudopotential:          2
                             - Non-local part of the GTH pseudopotential:      0


 SCF PARAMETERS         Density guess:                                    ATOMIC
                        --------------------------------------------------------
                        max_scf:                                              15
                        max_scf_history:                                       0
                        max_diis:                                              4
                        --------------------------------------------------------
                        eps_scf:                                        5.00E-07
                        eps_scf_history:                                0.00E+00
                        eps_diis:                                       1.00E-01
                        eps_eigval:                                     1.00E-05
                        --------------------------------------------------------
                        level_shift [a.u.]:                                 0.00
                        --------------------------------------------------------
                        Outer loop SCF in use 
                        No variables optimised in outer loop
                        eps_scf                                         5.00E-07
                        max_scf                                                1
                        No outer loop optimization
                        step_size                                       5.00E-01

 Number of electrons:                                                        256
 Number of occupied orbitals:                                                128
 Number of molecular orbitals:                                               128

 Number of orbital functions:                                                736
 Number of independent orbital functions:                                    736

 Extrapolation method: initial_guess


 SCF WAVEFUNCTION OPTIMIZATION

  ----------------------------------- OT ---------------------------------------
  Minimizer      : DIIS                : direct inversion
                                         in the iterative subspace
                                         using   7 DIIS vectors
                                         safer DIIS on
  Preconditioner : FULL_ALL            : diagonalization, state selective
  Precond_solver : DEFAULT
  stepsize       :    0.15000000                  energy_gap     :    0.08000000
  eps_taylor     :   0.10000E-15                  max_taylor     :             4
  ----------------------------------- OT ---------------------------------------

  Step     Update method      Time    Convergence         Total energy    Change
  ------------------------------------------------------------------------------
     1 OT DIIS     0.15E+00    1.6     0.05418225      -528.5865231204 -5.29E+02
     2 OT DIIS     0.15E+00    1.4     0.04161713      -540.6342619813 -1.20E+01
     3 OT DIIS     0.15E+00    1.4     0.01966543      -548.3439194357 -7.71E+00
     4 OT DIIS     0.15E+00    1.5     0.01176280      -549.7912194486 -1.45E+00
     5 OT DIIS     0.15E+00    1.6     0.00944354      -550.3907877406 -6.00E-01
     6 OT DIIS     0.15E+00    1.5     0.00636047      -550.7954794574 -4.05E-01
     7 OT DIIS     0.15E+00    1.6     0.00447174      -551.0231356606 -2.28E-01
     8 OT DIIS     0.15E+00    1.6     0.00390661      -551.1313297787 -1.08E-01
     9 OT DIIS     0.15E+00    1.7     0.00303212      -551.1852782351 -5.39E-02
    10 OT DIIS     0.15E+00    1.7     0.00191019      -551.2005437293 -1.53E-02
    11 OT DIIS     0.15E+00    1.7     0.00118496      -551.2131845757 -1.26E-02
    12 OT DIIS     0.15E+00    1.7     0.00070586      -551.2176942979 -4.51E-03
    13 OT DIIS     0.15E+00    1.6     0.00042595      -551.2202484331 -2.55E-03
    14 OT DIIS     0.15E+00    1.7     0.00030399      -551.2210732221 -8.25E-04
    15 OT DIIS     0.15E+00    1.6     0.00019049      -551.2214684148 -3.95E-04

  Leaving inner SCF loop after reaching    15 steps.


  Electronic density on regular grids:       -255.9999998267        0.0000001733
  Core density on regular grids:              256.0000000000       -0.0000000000
  Total charge density on r-space grids:        0.0000001733
  Total charge density g-space grids:           0.0000001733

  Overlap energy of the core charge distribution:               0.00000219126415
  Self energy of the core charge distribution:              -1419.10895989560481
  Core Hamiltonian energy:                                    414.96907198737676
  Hartree energy:                                             588.91624051780821
  Exchange-correlation energy:                               -135.99782321561628

  Total energy:                                              -551.22146841477183

  outer SCF iter =    1 RMS gradient =   0.19E-03 energy =       -551.2214684148

  ----------------------------------- OT ---------------------------------------
  Minimizer      : DIIS                : direct inversion
                                         in the iterative subspace
                                         using   7 DIIS vectors
                                         safer DIIS on
  Preconditioner : FULL_ALL            : diagonalization, state selective
  Precond_solver : DEFAULT
  stepsize       :    0.15000000                  energy_gap     :    0.08000000
  eps_taylor     :   0.10000E-15                  max_taylor     :             4
  ----------------------------------- OT ---------------------------------------

  Step     Update method      Time    Convergence         Total energy    Change
  ------------------------------------------------------------------------------
     1 OT DIIS     0.15E+00    3.5     0.00028265      -551.2217004378 -2.32E-04
     2 OT DIIS     0.15E+00    1.7     0.00011294      -551.2224873795 -7.87E-04
     3 OT DIIS     0.15E+00    1.6     0.00002099      -551.2226346102 -1.47E-04
     4 OT DIIS     0.15E+00    1.6     0.00000145      -551.2226364182 -1.81E-06
     5 OT DIIS     0.15E+00    1.5     0.00000048      -551.2226364292 -1.10E-08

  *** SCF run converged in     5 steps ***


  Electronic density on regular grids:       -255.9999998264        0.0000001736
  Core density on regular grids:              256.0000000000       -0.0000000000
  Total charge density on r-space grids:        0.0000001736
  Total charge density g-space grids:           0.0000001736

  Overlap energy of the core charge distribution:               0.00000219126415
  Self energy of the core charge distribution:              -1419.10895989560481
  Core Hamiltonian energy:                                    414.96583683656257
  Hartree energy:                                             588.91860355277731
  Exchange-correlation energy:                               -135.99811911418414

  Total energy:                                              -551.22263642918483

  outer SCF iter =    2 RMS gradient =   0.48E-06 energy =       -551.2226364292
  outer SCF loop converged in   2 iterations or   20 steps


 ENERGY| Total FORCE_EVAL ( QS ) energy (a.u.):             -551.222636430245416


 ATOMIC FORCES in [a.u.]

 # Atom   Kind   Element          X              Y              Z
      1      1      O          -0.00992440    -0.00741403    -0.02322537
      2      2      H          -0.00802261     0.00714273     0.00788985
      3      2      H           0.01230306     0.00331020     0.01353600
      4      1      O           0.00048537    -0.01581993     0.02048243
      5      2      H          -0.00873733     0.00805050     0.00455603
      6      2      H           0.00543619     0.00968887    -0.01586816
      7      1      O          -0.00965541    -0.00090030    -0.02400574
      8      2      H           0.00455845    -0.01252282     0.00405314
      9      2      H           0.00313602     0.01042386     0.01236159
     10      1      O          -0.02362057    -0.02646489    -0.00368536
     11      2      H           0.01040789     0.00018571    -0.01075647
     12      2      H           0.00260578     0.01711328     0.01429392
     13      1      O          -0.02235609     0.00063897     0.02257466
     14      2      H           0.01352194    -0.00773955    -0.00355808
     15      2      H           0.00331065     0.00530550    -0.01154735
     16      1      O          -0.00428967    -0.01090789     0.00177853
     17      2      H           0.01239508     0.00408137     0.00328708
     18      2      H          -0.00636382     0.01115603    -0.00496795
     19      1      O          -0.00651495     0.01397246     0.01697841
     20      2      H           0.00944012    -0.01027458     0.00858467
     21      2      H           0.01106328     0.01079926    -0.00813797
     22      1      O          -0.00494129    -0.01528337     0.00329623
     23      2      H          -0.00920954     0.00657352    -0.00990051
     24      2      H           0.01244612     0.00747912     0.00438443
     25      1      O          -0.01813450    -0.02634001    -0.02192628
     26      2      H           0.00294107     0.01027357    -0.01503173
     27      2      H           0.00407140     0.00186397     0.01281582
     28      1      O           0.00167865    -0.01512460    -0.00568549
     29      2      H           0.00161713     0.00520876     0.01395717
     30      2      H           0.00097393     0.01094599    -0.00823175
     31      1      O           0.00066601    -0.00122888    -0.02324879
     32      2      H          -0.00337086    -0.00701501     0.01445356
     33      2      H           0.00267008     0.00873706     0.00606314
     34      1      O          -0.00656809    -0.02458092    -0.00807289
     35      2      H           0.00977335    -0.00556303     0.00020480
     36      2      H          -0.00178734     0.02260538     0.00734710
     37      1      O          -0.01669490    -0.00361653    -0.00003509
     38      2      H           0.00821861     0.01308954    -0.00446945
     39      2      H           0.00990374    -0.00763537     0.00521016
     40      1      O          -0.00455258    -0.00098372     0.00457229
     41      2      H          -0.00490311    -0.00170320    -0.01559698
     42      2      H           0.00469383     0.01416610     0.00589554
     43      1      O          -0.00809352    -0.00704797    -0.01049121
     44      2      H           0.01695588     0.00287078    -0.01319316
     45      2      H          -0.01096459     0.00683443     0.02681804
     46      1      O           0.00267552    -0.00811729    -0.02006084
     47      2      H          -0.00039628     0.01219846     0.00333769
     48      2      H           0.00146037    -0.00564218     0.01169435
     49      1      O          -0.01618524    -0.00920034     0.00829402
     50      2      H           0.01439895     0.02338076    -0.00431538
     51      2      H           0.00325057    -0.01117173    -0.00177158
     52      1      O          -0.01316108     0.00376821    -0.00363420
     53      2      H           0.01748275    -0.01092574    -0.00416391
     54      2      H          -0.00149564     0.00435749     0.01252147
     55      1      O           0.01859773    -0.01044730     0.02576575
     56      2      H          -0.01391643     0.01378522    -0.01459231
     57      2      H          -0.00576254    -0.00726475    -0.00433051
     58      1      O          -0.00163372    -0.00234638     0.02219543
     59      2      H           0.00623145    -0.00618812    -0.02283680
     60      2      H          -0.00529838     0.01041960    -0.00054720
     61      1      O          -0.00638379    -0.02277606    -0.00263556
     62      2      H          -0.00446769     0.00814390     0.00140278
     63      2      H           0.01676860    -0.00149815     0.00617405
     64      1      O          -0.02417024    -0.00036415    -0.00518756
     65      2      H           0.00840856     0.01202047     0.00847088
     66      2      H           0.01996347    -0.01248582    -0.00420613
     67      1      O          -0.01186160     0.00035311    -0.00456368
     68      2      H           0.01474613    -0.00311396    -0.00880886
     69      2      H           0.00055919     0.00562885     0.01140906
     70      1      O          -0.00050747    -0.03026034     0.00608926
     71      2      H           0.01788629     0.00481807     0.00476133
     72      2      H          -0.01093471     0.02265597    -0.00591829
     73      1      O          -0.02319104    -0.01789613    -0.01431142
     74      2      H           0.00554382     0.01113317    -0.00366436
     75      2      H           0.01523542    -0.00253853     0.01698870
     76      1      O          -0.01561005     0.01913810    -0.00136127
     77      2      H           0.00748901    -0.00157906    -0.00774214
     78      2      H           0.00735885    -0.01768155     0.00979521
     79      1      O          -0.01461379    -0.01047775    -0.00182985
     80      2      H          -0.00271808     0.00836811     0.00824295
     81      2      H           0.01607928     0.00533582    -0.00482929
     82      1      O          -0.00934076     0.01154849    -0.00965381
     83      2      H           0.01554089    -0.00886247     0.00911101
     84      2      H          -0.00457990    -0.00681956    -0.00777613
     85      1      O          -0.00718664     0.00387117     0.00237042
     86      2      H           0.00194085    -0.01843024     0.00015697
     87      2      H           0.01464653     0.00684556    -0.00075594
     88      1      O           0.01110050     0.00191444     0.00201987
     89      2      H          -0.00503450     0.00994130    -0.01308229
     90      2      H          -0.00685292    -0.00370482     0.01733537
     91      1      O          -0.01016238     0.02869733     0.00331536
     92      2      H           0.01466863    -0.01852907    -0.01057064
     93      2      H          -0.00746364    -0.00455756     0.00628688
     94      1      O          -0.02544881     0.00603626    -0.01861343
     95      2      H           0.00361239     0.01172862     0.00157457
     96      2      H           0.01714378    -0.01034005     0.01125176
 SUM OF ATOMIC FORCES           0.00098067    -0.01278026     0.00256059     0.01307109

 -------------------------------------------------------------------------------
 -                                                                             -
 -                                DBCSR STATISTICS                             -
 -                                                                             -
 -------------------------------------------------------------------------------
 COUNTER                                    TOTAL       BLAS       SMM       ACC
 flops     5 x    32 x    32              5242880       0.0%    100.0%      0.0%
 flops    13 x    32 x    32              6815744       0.0%    100.0%      0.0%
 flops     5 x     5 x   128            292864000       0.0%    100.0%      0.0%
 flops     5 x    13 x   128            372303360       0.0%    100.0%      0.0%
 flops    13 x     5 x   128            373767680       0.0%    100.0%      0.0%
 flops    13 x    13 x   128            474952192       0.0%    100.0%      0.0%
 flops    92 x   128 x   128            602931200       0.0%    100.0%      0.0%
 flops    32 x   128 x   128            650117120       0.0%    100.0%      0.0%
 flops   105 x   128 x   128            688128000       0.0%    100.0%      0.0%
 flops    97 x   128 x   128            953548800       0.0%    100.0%      0.0%
 flops     5 x    32 x     5           1441792000       0.0%    100.0%      0.0%
 flops    92 x   128 x   736           1525415936       0.0%    100.0%      0.0%
 flops   105 x   128 x   736           1740963840       0.0%    100.0%      0.0%
 flops    13 x    32 x     5           1865177600       0.0%    100.0%      0.0%
 flops     5 x    32 x    13           1865177600       0.0%    100.0%      0.0%
 flops    32 x   128 x   736           1977614336       0.0%    100.0%      0.0%
 flops    13 x    32 x    13           2298616320       0.0%    100.0%      0.0%
 flops    97 x   128 x   736           2412478464       0.0%    100.0%      0.0%
 flops inhomo. stacks                  1214545920     100.0%      0.0%      0.0%
 flops total                        20.762453E+09       5.8%     94.2%      0.0%
 flops max/rank                     20.762453E+09       5.8%     94.2%      0.0%
 matmuls inhomo. stacks                       144     100.0%      0.0%      0.0%
 matmuls total                            2114802       0.0%    100.0%      0.0%
 number of processed stacks                  6191       2.3%     97.7%      0.0%
 average stack size                                     1.0     349.7       0.0
 marketing flops                    21.915501E+09
 -------------------------------------------------------------------------------
 # multiplications                            462
 max memory usage/rank               0.000000E+00
 # max total images/rank                        1
 # max 3D layers                                1
 # MPI messages exchanged                       0
 MPI messages size (bytes):
  total size                         0.000000E+00
  min size                           0.000000E+00
  max size                           0.000000E+00
  average size                       0.000000E+00
 MPI breakdown and total messages size (bytes):
             size <=      128                   0                        0
       128 < size <=     8192                   0                        0
      8192 < size <=    32768                   0                        0
     32768 < size <=   131072                   0                        0
    131072 < size <=  4194304                   0                        0
   4194304 < size <= 16777216                   0                        0
  16777216 < size                               0                        0
 -------------------------------------------------------------------------------

 MEMORY| Estimated peak process memory [MiB]                                   0

 -------------------------------------------------------------------------------
 -                                                                             -
 -                           R E F E R E N C E S                               -
 -                                                                             -
 -------------------------------------------------------------------------------
 
 CP2K version 7.1, the CP2K developers group (2019).
 CP2K is freely available from https://www.cp2k.org/ .

 Schuett, Ole; Messmer, Peter; Hutter, Juerg; VandeVondele, Joost. 
 Electronic Structure Calculations on Graphics Processing Units, John
 Wiley & Sons, Ltd, 173-190 (2016). 
 GPU-Accelerated Sparse Matrix-Matrix Multiplication for
 Linear Scaling Density Functional Theory.
 https://dx.doi.org/10.1002/9781118670712.ch8

 Borstnik, U; VandeVondele, J; Weber, V; Hutter, J. 
 PARALLEL COMPUTING, 40 (5-6), 47-58 (2014). 
 Sparse matrix multiplication: The distributed block-compressed sparse
 row library.
 https://dx.doi.org/10.1016/j.parco.2014.03.012

 Hutter, J; Iannuzzi, M; Schiffmann, F; VandeVondele, J. 
 WIREs Comput Mol Sci., 4 (1), 15-25 (2014). 
 CP2K: atomistic simulations of condensed matter systems.
 https://dx.doi.org/10.1002/wcms.1159

 VandeVondele, J; Hutter, J. 
 JOURNAL OF CHEMICAL PHYSICS, 127 (11), 114105 (2007). 
 Gaussian basis sets for accurate calculations on molecular systems in
 gas and condensed phases.
 https://dx.doi.org/10.1063/1.2770708

 Krack, M. 
 THEORETICAL CHEMISTRY ACCOUNTS, 114 (1-3), 145-152 (2005). 
 Pseudopotentials for H to Kr optimized for gradient-corrected
 exchange-correlation functionals.
 https://dx.doi.org/10.1007/s00214-005-0655-y

 VandeVondele, J; Krack, M; Mohamed, F; Parrinello, M; Chassaing, T;
 Hutter, J. COMPUTER PHYSICS COMMUNICATIONS, 167 (2), 103-128 (2005). 
 QUICKSTEP: Fast and accurate density functional calculations using a
 mixed Gaussian and plane waves approach.
 https://dx.doi.org/10.1016/j.cpc.2004.12.014

 Frigo, M; Johnson, SG. 
 PROCEEDINGS OF THE IEEE, 93 (2), 216-231 (2005). 
 The design and implementation of FFTW3.
 https://dx.doi.org/10.1109/JPROC.2004.840301

 VandeVondele, J; Hutter, J. 
 JOURNAL OF CHEMICAL PHYSICS, 118 (10), 4365-4369 (2003). 
 An efficient orbital transformation method for electronic structure
 calculations.
 https://dx.doi.org/10.1063/1.1543154

 Hartwigsen, C; Goedecker, S; Hutter, J. 
 PHYSICAL REVIEW B, 58 (7), 3641-3662 (1998). 
 Relativistic separable dual-space Gaussian pseudopotentials from H to Rn.
 https://dx.doi.org/10.1103/PhysRevB.58.3641

 Lippert, G; Hutter, J; Parrinello, M. 
 MOLECULAR PHYSICS, 92 (3), 477-487 (1997). 
 A hybrid Gaussian and plane wave density functional scheme.
 https://dx.doi.org/10.1080/002689797170220

 Perdew, JP; Burke, K; Ernzerhof, M. 
 PHYSICAL REVIEW LETTERS, 77 (18), 3865-3868 (1996). 
 Generalized gradient approximation made simple.
 https://dx.doi.org/10.1103/PhysRevLett.77.3865

 Goedecker, S; Teter, M; Hutter, J. 
 PHYSICAL REVIEW B, 54 (3), 1703-1710 (1996). 
 Separable dual-space Gaussian pseudopotentials.
 https://dx.doi.org/10.1103/PhysRevB.54.1703


 -------------------------------------------------------------------------------
 -                                                                             -
 -                                T I M I N G                                  -
 -                                                                             -
 -------------------------------------------------------------------------------
 SUBROUTINE                       CALLS  ASD         SELF TIME        TOTAL TIME
                                MAXIMUM       AVERAGE  MAXIMUM  AVERAGE  MAXIMUM
 CP2K                                 1  1.0    0.007    0.007   39.086   39.086
 qs_forces                            1  2.0    0.000    0.000   38.288   38.288
 qs_energies                          1  3.0    0.000    0.000   34.250   34.250
 scf_env_do_scf                       1  4.0    0.000    0.000   32.510   32.510
 scf_env_do_scf_inner_loop           20  5.0    0.003    0.003   29.829   29.829
 rebuild_ks_matrix                   21  6.9    0.000    0.000   21.224   21.224
 qs_ks_build_kohn_sham_matrix        21  7.9    0.003    0.003   21.224   21.224
 qs_ks_update_qs_env                 22  6.0    0.000    0.000   20.194   20.194
 qs_vxc_create                       21  8.9    0.000    0.000   10.973   10.973
 xc_vxc_pw_create                    21  9.9    0.540    0.540   10.973   10.973
 pw_transfer                        400 10.5    0.002    0.002    9.743    9.743
 fft_wrap_pw1pw2                    358 11.6    0.009    0.009    9.626    9.626
 fft_wrap_pw1pw2_150                232 12.7    0.490    0.490    9.045    9.045
 sum_up_and_integrate                21  8.9    0.051    0.051    8.305    8.305
 integrate_v_rspace                  21  9.9    6.848    6.848    8.254    8.254
 qs_rho_update_rho                   21  6.0    0.000    0.000    7.207    7.207
 calculate_rho_elec                  21  7.0    5.034    5.034    7.207    7.207
 xc_rho_set_and_dset_create          21 10.9    0.053    0.053    6.654    6.654
 fft3d_s                            359 13.6    5.748    5.748    5.754    5.754
 qs_scf_new_mos                      20  6.0    0.000    0.000    4.954    4.954
 qs_scf_loop_do_ot                   20  7.0    0.000    0.000    4.954    4.954
 ot_scf_mini                         20  8.0    0.000    0.000    4.720    4.720
 dbcsr_multiply_generic             462 11.0    0.044    0.044    4.240    4.240
 xc_functional_eval                  21 11.9    0.000    0.000    3.943    3.943
 pbe_lda_eval                        21 12.9    3.943    3.943    3.943    3.943
 ot_mini                             20  9.0    0.000    0.000    3.288    3.288
 build_core_hamiltonian_matrix_       1  3.0    0.000    0.000    2.992    2.992
 init_scf_loop                        2  5.0    0.001    0.001    2.677    2.677
 qs_ot_get_derivative                20 10.0    0.000    0.000    2.213    2.213
 make_m2s                           924 12.0    0.014    0.014    2.176    2.176
 density_rs2pw                       21  8.0    0.002    0.002    2.118    2.118
 pw_gather_s                        169 13.0    1.851    1.851    1.851    1.851
 build_core_ppl_forces                1  4.0    1.577    1.577    1.577    1.577
 pw_scatter_s                       189 14.1    1.491    1.491    1.491    1.491
 potential_pw2rs                     21 10.9    0.011    0.011    1.327    1.327
 qs_energies_init_hamiltonians        1  4.0    0.000    0.000    1.206    1.206
 qs_ot_get_derivative_diag           14 11.0    0.000    0.000    1.206    1.206
 make_images                        924 13.0    0.537    0.537    1.205    1.205
 ot_diis_step                        20 10.0    0.001    0.001    1.074    1.074
 qs_ks_update_qs_env_forces           1  3.0    0.000    0.000    1.046    1.046
 dbcsr_copy                         408 10.5    0.045    0.045    1.035    1.035
 dbcsr_finalize                    1020 12.2    0.283    0.283    1.026    1.026
 build_core_hamiltonian_matrix        1  5.0    0.000    0.000    0.998    0.998
 dbcsr_copy_into_existing             2  6.0    0.955    0.955    0.955    0.955
 qs_ot_get_p                         22  8.8    0.000    0.000    0.864    0.864
 multiply_cannon                    462 12.0    0.199    0.199    0.861    0.861
 pw_poisson_solve                    21  8.9    0.705    0.705    0.824    0.824
 dbcsr_create_new                  5229 13.4    0.467    0.467    0.783    0.783
 -------------------------------------------------------------------------------

 The number of warnings for this run is : 0
 
 -------------------------------------------------------------------------------
  **** **** ******  **  PROGRAM ENDED AT                 2022-12-27 11:53:22.015
 ***** ** ***  *** **   PROGRAM RAN ON                            OROZCO66.local
 **    ****   ******    PROGRAM RAN BY                                  gbayarri
 ***** **    ** ** **   PROGRAM PROCESS ID                                 53636
  **** **  *******  **  PROGRAM STOPPED IN /Users/gbayarri/projects/BioBB/bce636
                                           12-4b59-4152-a98d-65c230a87472
