 DBCSR| CPU Multiplication driver                                           XSMM
 DBCSR| Multrec recursion limit                                              512
 DBCSR| Multiplication stack size                                           1000
 DBCSR| Maximum elements for images                                    UNLIMITED
 DBCSR| Multiplicative factor virtual images                                   1
 DBCSR| Use multiplication densification                                       T
 DBCSR| Multiplication size stacks                                             3


  **** **** ******  **  PROGRAM STARTED AT               2021-11-15 22:54:02.227
 ***** ** ***  *** **   PROGRAM STARTED ON               Adams-MacBook-Pro.local
 **    ****   ******    PROGRAM STARTED BY                              hospital
 ***** **    ** ** **   PROGRAM PROCESS ID                                 67853
  **** **  *******  **  PROGRAM STARTED IN /Users/hospital/CP2K/test_notebook/a4
                                           5f57af-12a6-432b-9649-2b0584777ab0

 CP2K| version string:                                          CP2K version 7.1
 CP2K| source code revision number:                                  git:e635599
 CP2K| cp2kflags: omp fftw3 xsmm no_statm_access accelerate                     
 CP2K| is freely available from                            https://www.cp2k.org/
 CP2K| Program compiled at                          Wed Apr 14 20:09:11 UTC 2021
 CP2K| Program compiled on                               Mac-1618428915900.local
 CP2K| Program compiled for                                  Darwin-x86-64-conda
 CP2K| Data directory path    /Users/runner/miniforge3/conda-bld/cp2k_1618430451
 CP2K| Input file name                                              Si_bulk8.inp

 GLOBAL| Force Environment number                                              1
 GLOBAL| Basis set file name                      /Users/hospital/CP2K/BASIS_SET
 GLOBAL| Potential file name                 /Users/hospital/CP2K/GTH_POTENTIALS
 GLOBAL| MM Potential file name                                     MM_POTENTIAL
 GLOBAL| Coordinate file name                                      __STD_INPUT__
 GLOBAL| Method name                                                        CP2K
 GLOBAL| Project name                                                   Si_bulk8
 GLOBAL| Preferred FFT library                                             FFTW3
 GLOBAL| Preferred diagonalization lib.                                       SL
 GLOBAL| Run type                                                   ENERGY_FORCE
 GLOBAL| All-to-all communication in single precision                          F
 GLOBAL| FFTs using library dependent lengths                                  F
 GLOBAL| Global print level                                                  LOW
 GLOBAL| MPI I/O enabled                                                       T
 GLOBAL| Total number of message passing processes                             1
 GLOBAL| Number of threads for this process                                    4
 GLOBAL| This output is from process                                           0
 GLOBAL| CPU model name                                                  UNKNOWN
 GLOBAL| CPUID                                                              1002
 GLOBAL| Compiled for CPUID                                                    0

 MEMORY| system memory details [Kb]
 MEMORY|                        rank 0           min           max       average
 MEMORY| MemTotal                    0             0             0             0
 MEMORY| MemFree                     0             0             0             0
 MEMORY| Buffers                     0             0             0             0
 MEMORY| Cached                      0             0             0             0
 MEMORY| Slab                        0             0             0             0
 MEMORY| SReclaimable                0             0             0             0
 MEMORY| MemLikelyFree               0             0             0             0


 GENERATE|  Preliminary Number of Bonds generated:                             0
 GENERATE|  Achieved consistency in connectivity generation.

 *******************************************************************************
 *******************************************************************************
 **                                                                           **
 **     #####                         ##              ##                      **
 **    ##   ##            ##          ##              ##                      **
 **   ##     ##                       ##            ######                    **
 **   ##     ##  ##   ##  ##   #####  ##  ##   ####   ##    #####    #####    **
 **   ##     ##  ##   ##  ##  ##      ## ##   ##      ##   ##   ##  ##   ##   **
 **   ##  ## ##  ##   ##  ##  ##      ####     ###    ##   ######   ######    **
 **    ##  ###   ##   ##  ##  ##      ## ##      ##   ##   ##       ##        **
 **     #######   #####   ##   #####  ##  ##  ####    ##    #####   ##        **
 **           ##                                                    ##        **
 **                                                                           **
 **                                                ... make the atoms dance   **
 **                                                                           **
 **            Copyright (C) by CP2K developers group (2000 - 2019)           **
 **                                                                           **
 *******************************************************************************


 TOTAL NUMBERS AND MAXIMUM NUMBERS

  Total number of            - Atomic kinds:                                   1
                             - Atoms:                                          8
                             - Shell sets:                                    16
                             - Shells:                                        40
                             - Primitive Cartesian functions:                 40
                             - Cartesian basis functions:                    112
                             - Spherical basis functions:                    104

  Maximum angular momentum of- Orbital basis functions:                        2
                             - Local part of the GTH pseudopotential:          0
                             - Non-local part of the GTH pseudopotential:      2


 SCF PARAMETERS         Density guess:                                    ATOMIC
                        --------------------------------------------------------
                        max_scf:                                             300
                        max_scf_history:                                       0
                        max_diis:                                              4
                        --------------------------------------------------------
                        eps_scf:                                        1.00E-07
                        eps_scf_history:                                0.00E+00
                        eps_diis:                                       1.00E-01
                        eps_eigval:                                     1.00E-05
                        --------------------------------------------------------
                        level_shift [a.u.]:                                 0.00
                        --------------------------------------------------------
                        Mixing method:                            BROYDEN_MIXING
                                                charge density mixing in g-space
                        --------------------------------------------------------
                        No outer SCF

 Number of electrons:                                                         32
 Number of occupied orbitals:                                                 16
 Number of molecular orbitals:                                                16

 Number of orbital functions:                                                104
 Number of independent orbital functions:                                    104

 Extrapolation method: initial_guess


 SCF WAVEFUNCTION OPTIMIZATION

  Step     Update method      Time    Convergence         Total energy    Change
  ------------------------------------------------------------------------------
     1 NoMix/Diag. 0.40E+00    0.5     0.75558761       -32.2320842292 -3.22E+01
     2 Broy./Diag. 0.40E+00    0.8     0.05667972       -31.1418142582  1.09E+00
     3 Broy./Diag. 0.40E+00    0.9     0.09691462       -31.1974004673 -5.56E-02
     4 Broy./Diag. 0.40E+00    0.8     0.00245608       -31.3378474112 -1.40E-01
     5 Broy./Diag. 0.40E+00    0.6     0.00235460       -31.3009654429  3.69E-02
     6 Broy./Diag. 0.40E+00    0.6     0.00007565       -31.2972158943  3.75E-03
     7 Broy./Diag. 0.40E+00    0.6     0.00009004       -31.2977293749 -5.13E-04
     8 Broy./Diag. 0.40E+00    0.6     0.00000186       -31.2978454163 -1.16E-04
     9 Broy./Diag. 0.40E+00    0.6     0.00000252       -31.2978835492 -3.81E-05
    10 Broy./Diag. 0.40E+00    0.6     0.00000001       -31.2978852702 -1.72E-06

  *** SCF run converged in    10 steps ***


  Electronic density on regular grids:        -31.9999999889        0.0000000111
  Core density on regular grids:               31.9999999939       -0.0000000061
  Total charge density on r-space grids:        0.0000000051
  Total charge density g-space grids:           0.0000000051

  Overlap energy of the core charge distribution:               0.00000000005320
  Self energy of the core charge distribution:                -82.06393942512820
  Core Hamiltonian energy:                                     18.06858429706008
  Hartree energy:                                              42.41172817786521
  Exchange-correlation energy:                                 -9.71425832003541

  Total energy:                                               -31.29788527018513

 ENERGY| Total FORCE_EVAL ( QS ) energy (a.u.):              -31.297885372811002


 ATOMIC FORCES in [a.u.]

 # Atom   Kind   Element          X              Y              Z
      1      1      Si          0.00000000     0.00000000     0.00000000
      2      1      Si          0.00000000     0.00000001     0.00000001
      3      1      Si          0.00000001     0.00000001     0.00000000
      4      1      Si          0.00000001     0.00000000     0.00000001
      5      1      Si         -0.00000001    -0.00000001    -0.00000001
      6      1      Si         -0.00000001    -0.00000001    -0.00000001
      7      1      Si         -0.00000001    -0.00000001    -0.00000001
      8      1      Si         -0.00000001    -0.00000001    -0.00000001
 SUM OF ATOMIC FORCES          -0.00000000    -0.00000000    -0.00000000     0.00000000

 -------------------------------------------------------------------------------
 -                                                                             -
 -                                DBCSR STATISTICS                             -
 -                                                                             -
 -------------------------------------------------------------------------------
 COUNTER                                    TOTAL       BLAS       SMM       ACC
 flops    13 x    13 x    16              2141568       0.0%    100.0%      0.0%
 flops inhomo. stacks                           0       0.0%      0.0%      0.0%
 flops total                         2.141568E+06       0.0%    100.0%      0.0%
 flops max/rank                      2.141568E+06       0.0%    100.0%      0.0%
 matmuls inhomo. stacks                         0       0.0%      0.0%      0.0%
 matmuls total                                396       0.0%    100.0%      0.0%
 number of processed stacks                    44       0.0%    100.0%      0.0%
 average stack size                                     0.0       9.0       0.0
 marketing flops                     3.807232E+06
 -------------------------------------------------------------------------------
 # multiplications                             11
 max memory usage/rank               0.000000E+00
 # max total images/rank                        1
 # max 3D layers                                1
 # MPI messages exchanged                       0
 MPI messages size (bytes):
  total size                         0.000000E+00
  min size                           0.000000E+00
  max size                           0.000000E+00
  average size                       0.000000E+00
 MPI breakdown and total messages size (bytes):
             size <=      128                   0                        0
       128 < size <=     8192                   0                        0
      8192 < size <=    32768                   0                        0
     32768 < size <=   131072                   0                        0
    131072 < size <=  4194304                   0                        0
   4194304 < size <= 16777216                   0                        0
  16777216 < size                               0                        0
 -------------------------------------------------------------------------------

 MEMORY| Estimated peak process memory [MiB]                                   0

 -------------------------------------------------------------------------------
 -                                                                             -
 -                           R E F E R E N C E S                               -
 -                                                                             -
 -------------------------------------------------------------------------------
 
 CP2K version 7.1, the CP2K developers group (2019).
 CP2K is freely available from https://www.cp2k.org/ .

 Schuett, Ole; Messmer, Peter; Hutter, Juerg; VandeVondele, Joost. 
 Electronic Structure Calculations on Graphics Processing Units, John
 Wiley & Sons, Ltd, 173-190 (2016). 
 GPU-Accelerated Sparse Matrix-Matrix Multiplication for
 Linear Scaling Density Functional Theory.
 https://dx.doi.org/10.1002/9781118670712.ch8

 Borstnik, U; VandeVondele, J; Weber, V; Hutter, J. 
 PARALLEL COMPUTING, 40 (5-6), 47-58 (2014). 
 Sparse matrix multiplication: The distributed block-compressed sparse
 row library.
 https://dx.doi.org/10.1016/j.parco.2014.03.012

 Hutter, J; Iannuzzi, M; Schiffmann, F; VandeVondele, J. 
 WIREs Comput Mol Sci., 4 (1), 15-25 (2014). 
 CP2K: atomistic simulations of condensed matter systems.
 https://dx.doi.org/10.1002/wcms.1159

 Krack, M. 
 THEORETICAL CHEMISTRY ACCOUNTS, 114 (1-3), 145-152 (2005). 
 Pseudopotentials for H to Kr optimized for gradient-corrected
 exchange-correlation functionals.
 https://dx.doi.org/10.1007/s00214-005-0655-y

 VandeVondele, J; Krack, M; Mohamed, F; Parrinello, M; Chassaing, T;
 Hutter, J. COMPUTER PHYSICS COMMUNICATIONS, 167 (2), 103-128 (2005). 
 QUICKSTEP: Fast and accurate density functional calculations using a
 mixed Gaussian and plane waves approach.
 https://dx.doi.org/10.1016/j.cpc.2004.12.014

 Frigo, M; Johnson, SG. 
 PROCEEDINGS OF THE IEEE, 93 (2), 216-231 (2005). 
 The design and implementation of FFTW3.
 https://dx.doi.org/10.1109/JPROC.2004.840301

 Hartwigsen, C; Goedecker, S; Hutter, J. 
 PHYSICAL REVIEW B, 58 (7), 3641-3662 (1998). 
 Relativistic separable dual-space Gaussian pseudopotentials from H to Rn.
 https://dx.doi.org/10.1103/PhysRevB.58.3641

 Lippert, G; Hutter, J; Parrinello, M. 
 MOLECULAR PHYSICS, 92 (3), 477-487 (1997). 
 A hybrid Gaussian and plane wave density functional scheme.
 https://dx.doi.org/10.1080/002689797170220

 Goedecker, S; Teter, M; Hutter, J. 
 PHYSICAL REVIEW B, 54 (3), 1703-1710 (1996). 
 Separable dual-space Gaussian pseudopotentials.
 https://dx.doi.org/10.1103/PhysRevB.54.1703


 -------------------------------------------------------------------------------
 -                                                                             -
 -                                T I M I N G                                  -
 -                                                                             -
 -------------------------------------------------------------------------------
 SUBROUTINE                       CALLS  ASD         SELF TIME        TOTAL TIME
                                MAXIMUM       AVERAGE  MAXIMUM  AVERAGE  MAXIMUM
 CP2K                                 1  1.0    0.035    0.035    8.575    8.575
 qs_forces                            1  2.0    0.002    0.002    8.355    8.355
 qs_energies                          1  3.0    0.007    0.007    7.515    7.515
 scf_env_do_scf                       1  4.0    0.002    0.002    6.805    6.805
 scf_env_do_scf_inner_loop           10  5.0    0.007    0.007    6.803    6.803
 rebuild_ks_matrix                   11  6.7    0.000    0.000    4.242    4.242
 qs_ks_build_kohn_sham_matrix        11  7.7    0.003    0.003    4.242    4.242
 sum_up_and_integrate                11  8.7    0.006    0.006    3.885    3.885
 integrate_v_rspace                  11  9.7    3.712    3.712    3.879    3.879
 qs_ks_update_qs_env                 10  6.0    0.000    0.000    3.671    3.671
 qs_rho_update_rho                   11  6.0    0.000    0.000    3.091    3.091
 calculate_rho_elec                  11  7.0    2.891    2.891    3.091    3.091
 qs_ks_update_qs_env_forces           1  3.0    0.000    0.000    0.573    0.573
 pw_transfer                        142  9.8    0.000    0.000    0.549    0.549
 fft_wrap_pw1pw2                    120 10.8    0.002    0.002    0.507    0.507
 fft_wrap_pw1pw2_150                 54 11.1    0.074    0.074    0.463    0.463
 init_scf_run                         1  4.0    0.001    0.001    0.423    0.423
 scf_env_initial_rho_setup            1  5.0    0.000    0.000    0.418    0.418
 gspace_mixing                        9  6.0    0.008    0.008    0.293    0.293
 fft3d_s                            121 12.7    0.274    0.274    0.281    0.281
 qs_energies_init_hamiltonians        1  4.0    0.002    0.002    0.271    0.271
 build_core_hamiltonian_matrix_       1  3.0    0.000    0.000    0.265    0.265
 broyden_mixing                       9  7.0    0.219    0.219    0.219    0.219
 build_core_hamiltonian_matrix        1  5.0    0.001    0.001    0.213    0.213
 density_rs2pw                       11  8.0    0.001    0.001    0.196    0.196
 -------------------------------------------------------------------------------

 The number of warnings for this run is : 0
 
 -------------------------------------------------------------------------------
  **** **** ******  **  PROGRAM ENDED AT                 2021-11-15 22:54:10.997
 ***** ** ***  *** **   PROGRAM RAN ON                   Adams-MacBook-Pro.local
 **    ****   ******    PROGRAM RAN BY                                  hospital
 ***** **    ** ** **   PROGRAM PROCESS ID                                 67853
  **** **  *******  **  PROGRAM STOPPED IN /Users/hospital/CP2K/test_notebook/a4
                                           5f57af-12a6-432b-9649-2b0584777ab0
